REMARK SMILES Cc1ccc(NC(=O)c2ccc(C[N@H+]3CC[N@H+](C)CC3)cc2)cc1NC1=NCC=C(c2cccnc2)N1
REMARK SMILES IDX 9 1 10 2 11 3 12 4 21 5 22 6 7 7 6 8 8 9 5 11 24 12 23 13
REMARK SMILES IDX 2 14 3 15 4 16 1 17 25 18 30 19 37 20 29 21 26 22 28 23
REMARK SMILES IDX 27 24 31 27 33 28 34 29 32 30 35 31 36 32 13 33 14 34 15 35
REMARK SMILES IDX 20 36 16 37 19 38 17 39 18 41
REMARK H PARENT 6 10 37 25 25 26 14 40 17 42
ROOT
ATOM      1  C   UNL     1      15.595  50.558  16.689  1.00  0.00    +0.040 A 
ATOM      2  C   UNL     1      14.423  50.268  17.519  1.00  0.00    +0.014 A 
ATOM      3  C   UNL     1      14.423  49.124  18.396  1.00  0.00    +0.010 A 
ATOM      4  C   UNL     1      15.600  48.260  18.446  1.00  0.00    +0.006 A 
ATOM      5  C   UNL     1      16.747  48.568  17.608  1.00  0.00    +0.010 A 
ATOM      6  C   UNL     1      16.751  49.689  16.748  1.00  0.00    +0.014 A 
ENDROOT
BRANCH   1   7
ATOM      7  C   UNL     1      15.629  51.747  15.784  1.00  0.00    +0.255 C 
ATOM      8  N   UNL     1      16.600  51.810  14.798  1.00  0.00    -0.322 N 
ATOM      9  O   UNL     1      14.789  52.612  15.983  1.00  0.00    -0.269 OA
ATOM     10  H   UNL     1      17.326  51.148  14.863  1.00  0.00    +0.170 HD
BRANCH   8  11
ATOM     11  C   UNL     1      16.678  52.727  13.688  1.00  0.00    +0.043 A 
ATOM     12  C   UNL     1      15.822  54.641  12.322  1.00  0.00    +0.046 A 
ATOM     13  C   UNL     1      15.698  53.772  13.436  1.00  0.00    +0.052 A 
ATOM     14  C   UNL     1      16.950  54.502  11.393  1.00  0.00    -0.027 A 
ATOM     15  C   UNL     1      17.915  53.471  11.648  1.00  0.00    +0.008 A 
ATOM     16  C   UNL     1      17.774  52.597  12.786  1.00  0.00    +0.026 A 
ATOM     17  C   UNL     1      17.148  55.406  10.154  1.00  0.00    +0.046 C 
BRANCH  12  18
ATOM     18  N   UNL     1      14.852  55.627  12.128  1.00  0.00    -0.326 N 
ATOM     19  C   UNL     1      14.238  59.155  12.712  1.00  0.00    +0.047 C 
ATOM     20  N   UNL     1      14.101  57.840  12.327  1.00  0.00    -0.326 N 
ATOM     21  C   UNL     1      15.433  59.579  13.383  1.00  0.00    +0.023 C 
ATOM     22  C   UNL     1      15.067  56.927  12.559  1.00  0.00    +0.200 C 
ATOM     23  C   UNL     1      16.428  58.603  13.615  1.00  0.00    +0.176 C 
ATOM     24  N   UNL     1      16.232  57.303  13.202  1.00  0.00    -0.248 NA
ATOM     25  H   UNL     1      13.253  57.489  12.794  1.00  0.00    +0.170 HD
ATOM     26  H   UNL     1      14.006  55.396  11.680  1.00  0.00    +0.170 HD
BRANCH  19  27
ATOM     27  C   UNL     1      13.097  60.070  12.392  1.00  0.00    +0.016 A 
ATOM     28  C   UNL     1      11.879  62.272  12.570  1.00  0.00    +0.021 A 
ATOM     29  C   UNL     1      10.858  61.734  11.710  1.00  0.00    +0.111 A 
ATOM     30  C   UNL     1      13.002  61.429  12.910  1.00  0.00    +0.013 A 
ATOM     31  N   UNL     1      10.961  60.425  11.216  1.00  0.00    -0.264 NA
ATOM     32  C   UNL     1      12.031  59.591  11.525  1.00  0.00    +0.121 A 
ENDBRANCH  19  27
ENDBRANCH  12  18
ENDBRANCH   8  11
ENDBRANCH   1   7
BRANCH   4  33
ATOM     33  C   UNL     1      15.696  47.030  19.368  1.00  0.00    +0.299 C 
BRANCH  33  34
ATOM     34  N   UNL     1      16.917  46.907  20.219  1.00  0.00    -0.322 N 
ATOM     35  C   UNL     1      16.877  45.658  21.104  1.00  0.00    +0.324 C 
ATOM     36  C   UNL     1      17.097  48.140  21.070  1.00  0.00    +0.324 C 
ATOM     37  C   UNL     1      18.172  45.533  21.971  1.00  0.00    +0.324 C 
ATOM     38  C   UNL     1      18.375  48.041  21.949  1.00  0.00    +0.324 C 
ATOM     39  N   UNL     1      18.337  46.794  22.821  1.00  0.00    -0.328 N 
ATOM     40  H   UNL     1      17.714  46.815  19.590  1.00  0.00    +0.348 HD
ATOM     41  C   UNL     1      19.522  46.655  23.680  1.00  0.00    +0.333 C 
ATOM     42  H   UNL     1      17.527  46.906  23.431  1.00  0.00    +0.348 HD
ENDBRANCH  33  34
ENDBRANCH   4  33
TORSDOF 6
